#INFO: **** input file is /state/partition1/nsb37/159764/prepVMC.py ****
import numpy as np
import math
from pyscf import gto, scf, ao2mo, mcscf, tools
from pyscf.shciscf import shci
import os

# make your molecule here
r = 2.5 * 0.529177
atomstring = "N 0 0 0; N 0 0 %g"%(r)
mol = gto.M(
    atom = atomstring,
    basis = 'aug-cc-pvqz',
    verbose=4,
    symmetry=0,
    spin = 0)

mf = scf.RHF(mol)
mf.chkfile = 'N2_HF.chk'
mf.kernel()

norbAct = 8
nelecAct = 10
norbFrozen = 0

mc = shci.SHCISCF(mf, norbAct, nelecAct)
mc.chkfile = 'N2_SHCISCF.chk'
mc.fcisolver.sweep_iter = [0]
mc.fcisolver.sweep_epsilon = [0]
mc.fcisolver.nPTiter = 0
mc.max_cycle_macro = 30
mc.fcisolver.nPTiter = 0  # Turns off PT calculation, i.e. no PTRDM.
mc.kernel()

fileh = open("moEne.txt", 'w')
for i in range(mol.nao - norbFrozen):
  fileh.write('%.12e\n'%(mc.mo_energy[i + norbFrozen]))
fileh.close()

tools.fcidump.from_mc(mc, 'FCIDUMP.h5', nFrozen = norbFrozen)

# active space integrals for dice calculation
mo_core = mc.mo_coeff[:,:norbCore]
mo_rest = mc.mo_coeff[:,norbCore:norbCore + norbAct]
core_dm = 2 * mo_core.dot(mo_core.T)
corevhf = mc.get_veff(mol, core_dm)
energy_core = mol.energy_nuc()
energy_core += np.einsum('ij,ji', core_dm, mc.get_hcore())
energy_core += np.einsum('ij,ji', core_dm, corevhf) * .5
h1eff = mo_rest.T.dot(mc.get_hcore() + corevhf).dot(mo_rest)
eri = ao2mo.kernel(mol, mo_rest)
tools.fcidump.from_integrals('FCIDUMP', h1eff, eri, norbAct, nelecAct, energy_core, tol=1e-12)
#INFO: ******************** input file end ********************


System: ('Linux', 'compute-0-20.local', '2.6.32-504.16.2.el6.x86_64', '#1 SMP Wed Apr 22 06:48:29 UTC 2015', 'x86_64', 'x86_64')  Threads 16
Python 2.7.15 |Anaconda, Inc.| (default, May  1 2018, 23:32:55) 
[GCC 7.2.0]
numpy 1.15.1  scipy 1.1.0
Date: Thu Jun 11 10:24:10 2020
PySCF version 1.7.1
PySCF path  /home/nsb37/pyscf/pyscf
GIT ORIG_HEAD f9a419e89c2fa6ea63cd0445a6fc1dde4109b47b
GIT HEAD      ref: refs/heads/master
GIT master branch  97008722ba492c9d60fa46535f156620355ae933

[CONFIG] conf_file None
[INPUT] verbose = 4
[INPUT] num. atoms = 2
[INPUT] num. electrons = 14
[INPUT] charge = 0
[INPUT] spin (= nelec alpha-beta = 2S) = 0
[INPUT] symmetry 0 subgroup None
[INPUT] Mole.unit = angstrom
[INPUT]  1 N      0.000000000000   0.000000000000   0.000000000000 AA    0.000000000000   0.000000000000   0.000000000000 Bohr
[INPUT]  2 N      0.000000000000   0.000000000000   1.322940000000 AA    0.000000000000   0.000000000000   2.499994279232 Bohr

nuclear repulsion = 19.6000448509229
number of shells = 38
number of NR pGTOs = 186
number of NR cGTOs = 160
basis = aug-cc-pvqz
ecp = {}
CPU time:         0.25


******** <class 'pyscf.scf.hf.RHF'> ********
method = RHF
initial guess = minao
damping factor = 0
level_shift factor = 0
DIIS = <class 'pyscf.scf.diis.CDIIS'>
diis_start_cycle = 1
diis_space = 8
SCF conv_tol = 1e-09
SCF conv_tol_grad = None
SCF max_cycles = 50
direct_scf = True
direct_scf_tol = 1e-13
chkfile to save SCF result = N2_HF.chk
max_memory 4000 MB (current use 60 MB)
Set gradient conv threshold to 3.16228e-05
init E= -108.375669070915
  HOMO = -0.34787629738179  LUMO = -0.0143978847087968
cycle= 1 E= -108.824491409203  delta_E= -0.449  |g|= 0.371  |ddm|= 1.04
  HOMO = -0.59862513526275  LUMO = -0.00635350093528998
cycle= 2 E= -108.854891870838  delta_E= -0.0304  |g|= 0.113  |ddm|= 0.285
  HOMO = -0.53526953122904  LUMO = 0.0490396540824628
cycle= 3 E= -108.857495435936  delta_E= -0.0026  |g|= 0.0205  |ddm|= 0.0595
  HOMO = -0.5346763816803  LUMO = 0.0508974548066598
cycle= 4 E= -108.857690630462  delta_E= -0.000195  |g|= 0.00223  |ddm|= 0.0294
  HOMO = -0.535053791975713  LUMO = 0.050622591426976
cycle= 5 E= -108.857691919199  delta_E= -1.29e-06  |g|= 0.000182  |ddm|= 0.00177
  HOMO = -0.535074237413417  LUMO = 0.0506018115272507
cycle= 6 E= -108.857691936801  delta_E= -1.76e-08  |g|= 3.99e-05  |ddm|= 0.000212
  HOMO = -0.535060088198722  LUMO = 0.0506139746724598
cycle= 7 E= -108.857691937612  delta_E= -8.1e-10  |g|= 6.11e-06  |ddm|= 5.28e-05
  HOMO = -0.535059778319268  LUMO = 0.0506139588282772
Extra cycle  E= -108.857691937629  delta_E= -1.77e-11  |g|= 1.87e-06  |ddm|= 7.63e-06
converged SCF energy = -108.857691937629

******** <class 'pyscf.mcscf.mc1step.CASSCF'> ********
CAS (5e+5e, 8o), ncore = 2, nvir = 150
max_cycle_macro = 30
max_cycle_micro = 4
conv_tol = 1e-07
conv_tol_grad = None
orbital rotation max_stepsize = 0.02
augmented hessian ah_max_cycle = 30
augmented hessian ah_conv_tol = 1e-12
augmented hessian ah_linear dependence = 1e-14
augmented hessian ah_level shift = 0
augmented hessian ah_start_tol = 2.5
augmented hessian ah_start_cycle = 3
augmented hessian ah_grad_trust_region = 3
kf_trust_region = 3
kf_interval = 4
ci_response_space = 4
ci_grad_trust_region = 3
with_dep4 0
natorb = False
canonicalization = True
sorting_mo_energy = False
ao2mo_level = 2
chkfile = N2_SHCISCF.chk
max_memory 4000 MB (current use 745 MB)
internal_rotation = False

******** SHCI flags ********
executable             = /home/nsb37/Dice_github/Dice
mpiprefix              = mpirun
scratchDirectory       = /scratch/nsb37/159764/TMPDIR/65619
integralFile           = ./FCIDUMP
configFile             = ./input.dat
outputFile             = ./output.dat
maxIter                = 6
sweep_iter             = [    0]
sweep_epsilon          = [    0]
nPTiter                = 0
Stochastic             = True
restart                = False
fullrestart            = False
num_thrds              = 1
memory                 = None

CASCI E = -108.935992157815  S^2 = 0.0000000
Set conv_tol_grad to 0.000316228
macro iter 1 (21 JK  4 micro), CASSCF E = -109.002654839179  dE = -0.066662681  S^2 = 0.0000000
               |grad[o]|=0.0931  |grad[c]|= None  |ddm|=0.116
macro iter 2 (21 JK  4 micro), CASSCF E = -109.026899970669  dE = -0.024245131  S^2 = 0.0000000
               |grad[o]|=0.0339  |grad[c]|= None  |ddm|=0.0197
macro iter 3 (21 JK  4 micro), CASSCF E = -109.05563767273  dE = -0.028737702  S^2 = 0.0000000
               |grad[o]|=0.0402  |grad[c]|= None  |ddm|=0.0217
macro iter 4 (18 JK  4 micro), CASSCF E = -109.065260980733  dE = -0.009623308  S^2 = 0.0000000
               |grad[o]|=0.0309  |grad[c]|= None  |ddm|=0.0103
macro iter 5 (6 JK  2 micro), CASSCF E = -109.065262193758  dE = -1.2130256e-06  S^2 = 0.0000000
               |grad[o]|=0.000908  |grad[c]|= None  |ddm|=0.000323
macro iter 6 (1 JK  1 micro), CASSCF E = -109.065262193758  dE = 0  S^2 = 0.0000000
               |grad[o]|=2.29e-05  |grad[c]|= None  |ddm|=    0
1-step CASSCF converged in 6 macro (88 JK 19 micro) steps
CASSCF canonicalization
Density matrix diagonal elements [1.98521015 1.98740263 1.97096963 1.88902317 1.88902317 0.11843742
 0.11843742 0.0414964 ]
CASSCF energy = -109.065262193758
CASCI E = -109.065262193758  E(CI) = -29.6312638850244  S^2 = 0.0000000
