#INFO: **** input file is /state/partition1/nsb37/159760/prepVMC.py ****
import numpy as np
import math
from pyscf import gto, scf, ao2mo, mcscf, tools
from pyscf.shciscf import shci
import os

# make your molecule here
r = 2.5 * 0.529177
atomstring = "N 0 0 0; N 0 0 %g"%(r)
mol = gto.M(
    atom = atomstring,
    basis = 'aug-cc-pvdz',
    verbose=4,
    symmetry=0,
    spin = 0)

mf = scf.RHF(mol)
mf.chkfile = 'N2_HF.chk'
mf.kernel()

norbAct = 8
nelecAct = 10
norbFrozen = 0

mc = shci.SHCISCF(mf, norbAct, nelecAct)
mc.chkfile = 'N2_SHCISCF.chk'
mc.fcisolver.sweep_iter = [0]
mc.fcisolver.sweep_epsilon = [0]
mc.fcisolver.nPTiter = 0
mc.max_cycle_macro = 30
mc.fcisolver.nPTiter = 0  # Turns off PT calculation, i.e. no PTRDM.
mc.kernel()

fileh = open("moEne.txt", 'w')
for i in range(mol.nao - norbFrozen):
  fileh.write('%.12e\n'%(mc.mo_energy[i + norbFrozen]))
fileh.close()

tools.fcidump.from_mc(mc, 'FCIDUMP.h5', nFrozen = norbFrozen)

# active space integrals for dice calculation
mo_core = mc.mo_coeff[:,:norbCore]
mo_rest = mc.mo_coeff[:,norbCore:norbCore + norbAct]
core_dm = 2 * mo_core.dot(mo_core.T)
corevhf = mc.get_veff(mol, core_dm)
energy_core = mol.energy_nuc()
energy_core += np.einsum('ij,ji', core_dm, mc.get_hcore())
energy_core += np.einsum('ij,ji', core_dm, corevhf) * .5
h1eff = mo_rest.T.dot(mc.get_hcore() + corevhf).dot(mo_rest)
eri = ao2mo.kernel(mol, mo_rest)
tools.fcidump.from_integrals('FCIDUMP', h1eff, eri, norbAct, nelecAct, energy_core, tol=1e-12)
#INFO: ******************** input file end ********************


System: ('Linux', 'compute-0-20.local', '2.6.32-504.16.2.el6.x86_64', '#1 SMP Wed Apr 22 06:48:29 UTC 2015', 'x86_64', 'x86_64')  Threads 16
Python 2.7.15 |Anaconda, Inc.| (default, May  1 2018, 23:32:55) 
[GCC 7.2.0]
numpy 1.15.1  scipy 1.1.0
Date: Thu Jun 11 10:15:55 2020
PySCF version 1.7.1
PySCF path  /home/nsb37/pyscf/pyscf
GIT ORIG_HEAD f9a419e89c2fa6ea63cd0445a6fc1dde4109b47b
GIT HEAD      ref: refs/heads/master
GIT master branch  97008722ba492c9d60fa46535f156620355ae933

[CONFIG] conf_file None
[INPUT] verbose = 4
[INPUT] num. atoms = 2
[INPUT] num. electrons = 14
[INPUT] charge = 0
[INPUT] spin (= nelec alpha-beta = 2S) = 0
[INPUT] symmetry 0 subgroup None
[INPUT] Mole.unit = angstrom
[INPUT]  1 N      0.000000000000   0.000000000000   0.000000000000 AA    0.000000000000   0.000000000000   0.000000000000 Bohr
[INPUT]  2 N      0.000000000000   0.000000000000   1.322940000000 AA    0.000000000000   0.000000000000   2.499994279232 Bohr

nuclear repulsion = 19.6000448509229
number of shells = 16
number of NR pGTOs = 70
number of NR cGTOs = 46
basis = aug-cc-pvdz
ecp = {}
CPU time:         0.31


******** <class 'pyscf.scf.hf.RHF'> ********
method = RHF
initial guess = minao
damping factor = 0
level_shift factor = 0
DIIS = <class 'pyscf.scf.diis.CDIIS'>
diis_start_cycle = 1
diis_space = 8
SCF conv_tol = 1e-09
SCF conv_tol_grad = None
SCF max_cycles = 50
direct_scf = True
direct_scf_tol = 1e-13
chkfile to save SCF result = N2_HF.chk
max_memory 4000 MB (current use 60 MB)
Set gradient conv threshold to 3.16228e-05
init E= -108.35463290919
  HOMO = -0.346564097196326  LUMO = -0.0132869969214158
cycle= 1 E= -108.801400408851  delta_E= -0.447  |g|= 0.349  |ddm|= 1.55
  HOMO = -0.599791382708974  LUMO = -0.00763857846488457
cycle= 2 E= -108.832326239905  delta_E= -0.0309  |g|= 0.0953  |ddm|= 0.347
  HOMO = -0.533945296333977  LUMO = 0.0510405778783166
cycle= 3 E= -108.834686441285  delta_E= -0.00236  |g|= 0.0186  |ddm|= 0.0908
  HOMO = -0.536345080300436  LUMO = 0.0503787958557407
cycle= 4 E= -108.834854757425  delta_E= -0.000168  |g|= 0.0014  |ddm|= 0.0476
  HOMO = -0.536028671757576  LUMO = 0.0506699001710128
cycle= 5 E= -108.834855478144  delta_E= -7.21e-07  |g|= 0.000165  |ddm|= 0.0025
  HOMO = -0.536069606225886  LUMO = 0.0506295930215991
cycle= 6 E= -108.834855493966  delta_E= -1.58e-08  |g|= 2.47e-05  |ddm|= 0.000377
  HOMO = -0.536062091429829  LUMO = 0.0506369865689959
cycle= 7 E= -108.834855494362  delta_E= -3.96e-10  |g|= 3.93e-06  |ddm|= 7.55e-05
  HOMO = -0.536062100477013  LUMO = 0.0506367019237651
Extra cycle  E= -108.834855494369  delta_E= -7.05e-12  |g|= 1.14e-06  |ddm|= 1.07e-05
converged SCF energy = -108.834855494369

******** <class 'pyscf.mcscf.mc1step.CASSCF'> ********
CAS (5e+5e, 8o), ncore = 2, nvir = 36
max_cycle_macro = 30
max_cycle_micro = 4
conv_tol = 1e-07
conv_tol_grad = None
orbital rotation max_stepsize = 0.02
augmented hessian ah_max_cycle = 30
augmented hessian ah_conv_tol = 1e-12
augmented hessian ah_linear dependence = 1e-14
augmented hessian ah_level shift = 0
augmented hessian ah_start_tol = 2.5
augmented hessian ah_start_cycle = 3
augmented hessian ah_grad_trust_region = 3
kf_trust_region = 3
kf_interval = 4
ci_response_space = 4
ci_grad_trust_region = 3
with_dep4 0
natorb = False
canonicalization = True
sorting_mo_energy = False
ao2mo_level = 2
chkfile = N2_SHCISCF.chk
max_memory 4000 MB (current use 75 MB)
internal_rotation = False

******** SHCI flags ********
executable             = /home/nsb37/Dice_github/Dice
mpiprefix              = mpirun
scratchDirectory       = /scratch/nsb37/159760/TMPDIR/56814
integralFile           = ./FCIDUMP
configFile             = ./input.dat
outputFile             = ./output.dat
maxIter                = 6
sweep_iter             = [    0]
sweep_epsilon          = [    0]
nPTiter                = 0
Stochastic             = True
restart                = False
fullrestart            = False
num_thrds              = 1
memory                 = None

CASCI E = -108.920393628366  S^2 = 0.0000000
Set conv_tol_grad to 0.000316228
macro iter 1 (21 JK  4 micro), CASSCF E = -108.977982439684  dE = -0.057588811  S^2 = 0.0000000
               |grad[o]|=0.0945  |grad[c]|= None  |ddm|=0.0963
macro iter 2 (21 JK  4 micro), CASSCF E = -109.000120923845  dE = -0.022138484  S^2 = 0.0000000
               |grad[o]|=0.0441  |grad[c]|= None  |ddm|=0.0165
macro iter 3 (21 JK  4 micro), CASSCF E = -109.025588980273  dE = -0.025468056  S^2 = 0.0000000
               |grad[o]|=0.0431  |grad[c]|= None  |ddm|=0.0189
macro iter 4 (21 JK  4 micro), CASSCF E = -109.040773108019  dE = -0.015184128  S^2 = 0.0000000
               |grad[o]|=0.0357  |grad[c]|= None  |ddm|=0.0123
macro iter 5 (13 JK  4 micro), CASSCF E = -109.041897431731  dE = -0.0011243237  S^2 = 0.0000000
               |grad[o]|=0.011  |grad[c]|= None  |ddm|=0.00471
macro iter 6 (3 JK  1 micro), CASSCF E = -109.041897434374  dE = -2.6425226e-09  S^2 = 0.0000000
               |grad[o]|=5.2e-05  |grad[c]|= None  |ddm|=    0
1-step CASSCF converged in 6 macro (100 JK 21 micro) steps
CASSCF canonicalization
Density matrix diagonal elements [1.98533214 1.98747272 1.97106406 1.88956429 1.88956429 0.1178568
 0.1178568  0.04128885]
CASSCF energy = -109.041897434374
CASCI E = -109.041897434374  E(CI) = -29.6112933331293  S^2 = 0.0000000
