#INFO: **** input file is /state/partition1/nsb37/159763/prepVMC.py ****
import numpy as np
import math
from pyscf import gto, scf, ao2mo, mcscf, tools
from pyscf.shciscf import shci
import os

# make your molecule here
r = 2.5 * 0.529177
atomstring = "N 0 0 0; N 0 0 %g"%(r)
mol = gto.M(
    atom = atomstring,
    basis = 'aug-cc-pvtz',
    verbose=4,
    symmetry=0,
    spin = 0)

mf = scf.RHF(mol)
mf.chkfile = 'N2_HF.chk'
mf.kernel()

norbAct = 8
nelecAct = 10
norbFrozen = 0

mc = shci.SHCISCF(mf, norbAct, nelecAct)
mc.chkfile = 'N2_SHCISCF.chk'
mc.fcisolver.sweep_iter = [0]
mc.fcisolver.sweep_epsilon = [0]
mc.fcisolver.nPTiter = 0
mc.max_cycle_macro = 30
mc.fcisolver.nPTiter = 0  # Turns off PT calculation, i.e. no PTRDM.
mc.kernel()

fileh = open("moEne.txt", 'w')
for i in range(mol.nao - norbFrozen):
  fileh.write('%.12e\n'%(mc.mo_energy[i + norbFrozen]))
fileh.close()

tools.fcidump.from_mc(mc, 'FCIDUMP.h5', nFrozen = norbFrozen)

# active space integrals for dice calculation
mo_core = mc.mo_coeff[:,:norbCore]
mo_rest = mc.mo_coeff[:,norbCore:norbCore + norbAct]
core_dm = 2 * mo_core.dot(mo_core.T)
corevhf = mc.get_veff(mol, core_dm)
energy_core = mol.energy_nuc()
energy_core += np.einsum('ij,ji', core_dm, mc.get_hcore())
energy_core += np.einsum('ij,ji', core_dm, corevhf) * .5
h1eff = mo_rest.T.dot(mc.get_hcore() + corevhf).dot(mo_rest)
eri = ao2mo.kernel(mol, mo_rest)
tools.fcidump.from_integrals('FCIDUMP', h1eff, eri, norbAct, nelecAct, energy_core, tol=1e-12)
#INFO: ******************** input file end ********************


System: ('Linux', 'compute-0-20.local', '2.6.32-504.16.2.el6.x86_64', '#1 SMP Wed Apr 22 06:48:29 UTC 2015', 'x86_64', 'x86_64')  Threads 16
Python 2.7.15 |Anaconda, Inc.| (default, May  1 2018, 23:32:55) 
[GCC 7.2.0]
numpy 1.15.1  scipy 1.1.0
Date: Thu Jun 11 10:23:27 2020
PySCF version 1.7.1
PySCF path  /home/nsb37/pyscf/pyscf
GIT ORIG_HEAD f9a419e89c2fa6ea63cd0445a6fc1dde4109b47b
GIT HEAD      ref: refs/heads/master
GIT master branch  97008722ba492c9d60fa46535f156620355ae933

[CONFIG] conf_file None
[INPUT] verbose = 4
[INPUT] num. atoms = 2
[INPUT] num. electrons = 14
[INPUT] charge = 0
[INPUT] spin (= nelec alpha-beta = 2S) = 0
[INPUT] symmetry 0 subgroup None
[INPUT] Mole.unit = angstrom
[INPUT]  1 N      0.000000000000   0.000000000000   0.000000000000 AA    0.000000000000   0.000000000000   0.000000000000 Bohr
[INPUT]  2 N      0.000000000000   0.000000000000   1.322940000000 AA    0.000000000000   0.000000000000   2.499994279232 Bohr

nuclear repulsion = 19.6000448509229
number of shells = 26
number of NR pGTOs = 116
number of NR cGTOs = 92
basis = aug-cc-pvtz
ecp = {}
CPU time:         0.25


******** <class 'pyscf.scf.hf.RHF'> ********
method = RHF
initial guess = minao
damping factor = 0
level_shift factor = 0
DIIS = <class 'pyscf.scf.diis.CDIIS'>
diis_start_cycle = 1
diis_space = 8
SCF conv_tol = 1e-09
SCF conv_tol_grad = None
SCF max_cycles = 50
direct_scf = True
direct_scf_tol = 1e-13
chkfile to save SCF result = N2_HF.chk
max_memory 4000 MB (current use 60 MB)
Set gradient conv threshold to 3.16228e-05
init E= -108.370597545294
  HOMO = -0.347544093561066  LUMO = -0.0140979023884051
cycle= 1 E= -108.81859476481  delta_E= -0.448  |g|= 0.368  |ddm|= 1.19
  HOMO = -0.598837760225127  LUMO = -0.00660264946147094
cycle= 2 E= -108.849127983219  delta_E= -0.0305  |g|= 0.112  |ddm|= 0.302
  HOMO = -0.534820245837261  LUMO = 0.0497922637165186
cycle= 3 E= -108.85170818832  delta_E= -0.00258  |g|= 0.02  |ddm|= 0.0651
  HOMO = -0.535008385827589  LUMO = 0.0510284167426774
cycle= 4 E= -108.851897388055  delta_E= -0.000189  |g|= 0.0019  |ddm|= 0.0277
  HOMO = -0.535139351811804  LUMO = 0.0509400889049829
cycle= 5 E= -108.851898383158  delta_E= -9.95e-07  |g|= 0.000178  |ddm|= 0.00163
  HOMO = -0.535166621491976  LUMO = 0.0509108395774014
cycle= 6 E= -108.85189840031  delta_E= -1.72e-08  |g|= 3.95e-05  |ddm|= 0.000226
  HOMO = -0.535152214671907  LUMO = 0.0509240518625171
cycle= 7 E= -108.851898401127  delta_E= -8.17e-10  |g|= 5.64e-06  |ddm|= 5.03e-05
  HOMO = -0.535152420167603  LUMO = 0.0509236139901405
Extra cycle  E= -108.851898401141  delta_E= -1.42e-11  |g|= 1.67e-06  |ddm|= 1.1e-05
converged SCF energy = -108.851898401141

******** <class 'pyscf.mcscf.mc1step.CASSCF'> ********
CAS (5e+5e, 8o), ncore = 2, nvir = 82
max_cycle_macro = 30
max_cycle_micro = 4
conv_tol = 1e-07
conv_tol_grad = None
orbital rotation max_stepsize = 0.02
augmented hessian ah_max_cycle = 30
augmented hessian ah_conv_tol = 1e-12
augmented hessian ah_linear dependence = 1e-14
augmented hessian ah_level shift = 0
augmented hessian ah_start_tol = 2.5
augmented hessian ah_start_cycle = 3
augmented hessian ah_grad_trust_region = 3
kf_trust_region = 3
kf_interval = 4
ci_response_space = 4
ci_grad_trust_region = 3
with_dep4 0
natorb = False
canonicalization = True
sorting_mo_energy = False
ao2mo_level = 2
chkfile = N2_SHCISCF.chk
max_memory 4000 MB (current use 144 MB)
internal_rotation = False

******** SHCI flags ********
executable             = /home/nsb37/Dice_github/Dice
mpiprefix              = mpirun
scratchDirectory       = /scratch/nsb37/159763/TMPDIR/61629
integralFile           = ./FCIDUMP
configFile             = ./input.dat
outputFile             = ./output.dat
maxIter                = 6
sweep_iter             = [    0]
sweep_epsilon          = [    0]
nPTiter                = 0
Stochastic             = True
restart                = False
fullrestart            = False
num_thrds              = 1
memory                 = None

CASCI E = -108.933865981108  S^2 = 0.0000000
Set conv_tol_grad to 0.000316228
macro iter 1 (21 JK  4 micro), CASSCF E = -108.995989223537  dE = -0.062123242  S^2 = 0.0000000
               |grad[o]|=0.0946  |grad[c]|= None  |ddm|=0.105
macro iter 2 (21 JK  4 micro), CASSCF E = -109.023626007349  dE = -0.027636784  S^2 = 0.0000000
               |grad[o]|=0.038  |grad[c]|= None  |ddm|=0.0218
macro iter 3 (21 JK  4 micro), CASSCF E = -109.052610294454  dE = -0.028984287  S^2 = 0.0000000
               |grad[o]|=0.0421  |grad[c]|= None  |ddm|=0.0221
macro iter 4 (16 JK  4 micro), CASSCF E = -109.059257971082  dE = -0.0066476766  S^2 = 0.0000000
               |grad[o]|=0.0274  |grad[c]|= None  |ddm|=0.00913
macro iter 5 (6 JK  2 micro), CASSCF E = -109.059258076979  dE = -1.0589783e-07  S^2 = 0.0000000
               |grad[o]|=0.000401  |grad[c]|= None  |ddm|=7.28e-05
macro iter 6 (1 JK  1 micro), CASSCF E = -109.059258076979  dE = 1.4210855e-14  S^2 = 0.0000000
               |grad[o]|=1.94e-05  |grad[c]|= None  |ddm|=    0
1-step CASSCF converged in 6 macro (86 JK 19 micro) steps
CASSCF canonicalization
Density matrix diagonal elements [1.98526772 1.98742502 1.97096518 1.88909568 1.88909568 0.11835198
 0.11835198 0.04144682]
CASSCF energy = -109.059258076979
CASCI E = -109.059258076979  E(CI) = -29.6275609630999  S^2 = 0.0000000
