#INFO: **** input file is /state/partition1/nsb37/157131/prepVMC.py ****
import numpy as np
import math
from pyscf import gto, scf, ao2mo, mcscf, tools
from pyscf.shciscf import shci
import os

# make your molecule here
r = 2.5 * 0.529177
atomstring = "N 0 0 0; N 0 0 %g"%(r)
mol = gto.M(
    atom = atomstring,
    basis = 'cc-pv5z',
    verbose=4,
    symmetry=0,
    spin = 0)

mf = scf.RHF(mol)
mf.chkfile = 'N2_HF.chk'
mf.kernel()

norbAct = 8
nelecAct = 10
norbFrozen = 0

mc = shci.SHCISCF(mf, norbAct, nelecAct)
mc.chkfile = 'N2_SHCISCF.chk'
mc.fcisolver.sweep_iter = [0]
mc.fcisolver.sweep_epsilon = [0]
mc.fcisolver.nPTiter = 0
mc.max_cycle_macro = 30
mc.fcisolver.nPTiter = 0  # Turns off PT calculation, i.e. no PTRDM.
mc.kernel()

fileh = open("moEne.txt", 'w')
for i in range(mol.nao - norbFrozen):
  fileh.write('%.12e\n'%(mc.mo_energy[i + norbFrozen]))
fileh.close()

tools.fcidump.from_mc(mc, 'FCIDUMP.h5', nFrozen = norbFrozen)

# active space integrals for dice calculation
mo_core = mc.mo_coeff[:,:norbCore]
mo_rest = mc.mo_coeff[:,norbCore:norbCore + norbAct]
core_dm = 2 * mo_core.dot(mo_core.T)
corevhf = mc.get_veff(mol, core_dm)
energy_core = mol.energy_nuc()
energy_core += np.einsum('ij,ji', core_dm, mc.get_hcore())
energy_core += np.einsum('ij,ji', core_dm, corevhf) * .5
h1eff = mo_rest.T.dot(mc.get_hcore() + corevhf).dot(mo_rest)
eri = ao2mo.kernel(mol, mo_rest)
tools.fcidump.from_integrals('FCIDUMP', h1eff, eri, norbAct, nelecAct, energy_core, tol=1e-12)
#INFO: ******************** input file end ********************


System: ('Linux', 'compute-0-26.local', '2.6.32-504.16.2.el6.x86_64', '#1 SMP Wed Apr 22 06:48:29 UTC 2015', 'x86_64', 'x86_64')  Threads 16
Python 2.7.15 |Anaconda, Inc.| (default, May  1 2018, 23:32:55) 
[GCC 7.2.0]
numpy 1.15.1  scipy 1.1.0
Date: Wed May 20 16:00:52 2020
PySCF version 1.7.1
PySCF path  /home/nsb37/pyscf/pyscf
GIT ORIG_HEAD f9a419e89c2fa6ea63cd0445a6fc1dde4109b47b
GIT HEAD      ref: refs/heads/master
GIT master branch  97008722ba492c9d60fa46535f156620355ae933

[CONFIG] conf_file None
[INPUT] verbose = 4
[INPUT] num. atoms = 2
[INPUT] num. electrons = 14
[INPUT] charge = 0
[INPUT] spin (= nelec alpha-beta = 2S) = 0
[INPUT] symmetry 0 subgroup None
[INPUT] Mole.unit = angstrom
[INPUT]  1 N      0.000000000000   0.000000000000   0.000000000000 AA    0.000000000000   0.000000000000   0.000000000000 Bohr
[INPUT]  2 N      0.000000000000   0.000000000000   1.322940000000 AA    0.000000000000   0.000000000000   2.499994279232 Bohr

nuclear repulsion = 19.6000448509229
number of shells = 40
number of NR pGTOs = 216
number of NR cGTOs = 182
basis = cc-pv5z
ecp = {}
CPU time:         0.26


******** <class 'pyscf.scf.hf.RHF'> ********
method = RHF
initial guess = minao
damping factor = 0
level_shift factor = 0
DIIS = <class 'pyscf.scf.diis.CDIIS'>
diis_start_cycle = 1
diis_space = 8
SCF conv_tol = 1e-09
SCF conv_tol_grad = None
SCF max_cycles = 50
direct_scf = True
direct_scf_tol = 1e-13
chkfile to save SCF result = N2_HF.chk
max_memory 4000 MB (current use 60 MB)
Set gradient conv threshold to 3.16228e-05
init E= -108.376923339517
  HOMO = -0.347764181982782  LUMO = -0.0130840170060307
cycle= 1 E= -108.825990253623  delta_E= -0.449  |g|= 0.37  |ddm|= 0.945
  HOMO = -0.59701527461551  LUMO = -0.00330088863460542
cycle= 2 E= -108.855961969072  delta_E= -0.03  |g|= 0.112  |ddm|= 0.227
  HOMO = -0.534885301202505  LUMO = 0.0541670776528447
cycle= 3 E= -108.858499999247  delta_E= -0.00254  |g|= 0.0205  |ddm|= 0.0562
  HOMO = -0.534053286400973  LUMO = 0.0563461486047711
cycle= 4 E= -108.858690584884  delta_E= -0.000191  |g|= 0.00232  |ddm|= 0.023
  HOMO = -0.534583931848222  LUMO = 0.0559046636129835
cycle= 5 E= -108.858691819141  delta_E= -1.23e-06  |g|= 0.000193  |ddm|= 0.00219
  HOMO = -0.534626828157036  LUMO = 0.0558608708844277
cycle= 6 E= -108.858691834213  delta_E= -1.51e-08  |g|= 3.84e-05  |ddm|= 0.000309
  HOMO = -0.534616683072727  LUMO = 0.0558707135208876
cycle= 7 E= -108.858691834883  delta_E= -6.71e-10  |g|= 6.56e-06  |ddm|= 6.54e-05
  HOMO = -0.534615671659282  LUMO = 0.0558714140607913
Extra cycle  E= -108.858691834904  delta_E= -2.09e-11  |g|= 2.1e-06  |ddm|= 1.2e-05
converged SCF energy = -108.858691834904

******** <class 'pyscf.mcscf.mc1step.CASSCF'> ********
CAS (5e+5e, 8o), ncore = 2, nvir = 172
max_cycle_macro = 30
max_cycle_micro = 4
conv_tol = 1e-07
conv_tol_grad = None
orbital rotation max_stepsize = 0.02
augmented hessian ah_max_cycle = 30
augmented hessian ah_conv_tol = 1e-12
augmented hessian ah_linear dependence = 1e-14
augmented hessian ah_level shift = 0
augmented hessian ah_start_tol = 2.5
augmented hessian ah_start_cycle = 3
augmented hessian ah_grad_trust_region = 3
kf_trust_region = 3
kf_interval = 4
ci_response_space = 4
ci_grad_trust_region = 3
with_dep4 0
natorb = False
canonicalization = True
sorting_mo_energy = False
ao2mo_level = 2
chkfile = N2_SHCISCF.chk
max_memory 4000 MB (current use 1211 MB)
internal_rotation = False

******** SHCI flags ********
executable             = /home/nsb37/Dice_github/Dice
mpiprefix              = mpirun
scratchDirectory       = /scratch/nsb37/157131/TMPDIR/92421
integralFile           = ./FCIDUMP
configFile             = ./input.dat
outputFile             = ./output.dat
maxIter                = 6
sweep_iter             = [    0]
sweep_epsilon          = [    0]
nPTiter                = 0
Stochastic             = True
restart                = False
fullrestart            = False
num_thrds              = 1
memory                 = None

CASCI E = -108.9585878512  S^2 = 0.0000000
Set conv_tol_grad to 0.000316228
macro iter 1 (21 JK  4 micro), CASSCF E = -109.008898747489  dE = -0.050310896  S^2 = 0.0000000
               |grad[o]|=0.101  |grad[c]|= None  |ddm|=0.0666
macro iter 2 (21 JK  4 micro), CASSCF E = -109.035452211748  dE = -0.026553464  S^2 = 0.0000000
               |grad[o]|=0.0575  |grad[c]|= None  |ddm|=0.0177
macro iter 3 (21 JK  4 micro), CASSCF E = -109.05849479896  dE = -0.023042587  S^2 = 0.0000000
               |grad[o]|=0.0491  |grad[c]|= None  |ddm|=0.0171
macro iter 4 (19 JK  4 micro), CASSCF E = -109.066337279183  dE = -0.0078424802  S^2 = 0.0000000
               |grad[o]|=0.0304  |grad[c]|= None  |ddm|=0.0118
macro iter 5 (6 JK  2 micro), CASSCF E = -109.066339024907  dE = -1.7457246e-06  S^2 = 0.0000000
               |grad[o]|=0.00133  |grad[c]|= None  |ddm|=0.00053
macro iter 6 (3 JK  1 micro), CASSCF E = -109.06633902576  dE = -8.521539e-10  S^2 = 0.0000000
               |grad[o]|=4.93e-05  |grad[c]|= None  |ddm|=    0
1-step CASSCF converged in 6 macro (91 JK 19 micro) steps
CASSCF canonicalization
Density matrix diagonal elements [1.98521254 1.98737346 1.97092881 1.88901625 1.88901625 0.11844782
 0.11844782 0.04155697]
CASSCF energy = -109.06633902576
CASCI E = -109.06633902576  E(CI) = -29.6320281850404  S^2 = 0.0000000
