#INFO: **** input file is /state/partition1/nsb37/157466/prepVMC.py ****
import numpy as np
import math
from pyscf import gto, scf, ao2mo, mcscf, tools
from pyscf.shciscf import shci
import os

# make your molecule here
r = 2.5 * 0.529177
atomstring = "N 0 0 0; N 0 0 %g"%(r)
mol = gto.M(
    atom = atomstring,
    basis = 'cc-pvqz',
    verbose=4,
    symmetry=0,
    spin = 0)

mf = scf.RHF(mol)
mf.chkfile = 'N2_HF.chk'
mf.kernel()

norbAct = 8
nelecAct = 10
norbFrozen = 0

mc = shci.SHCISCF(mf, norbAct, nelecAct)
mc.chkfile = 'N2_SHCISCF.chk'
mc.fcisolver.sweep_iter = [0]
mc.fcisolver.sweep_epsilon = [0]
mc.fcisolver.nPTiter = 0
mc.max_cycle_macro = 30
mc.fcisolver.nPTiter = 0  # Turns off PT calculation, i.e. no PTRDM.
mc.kernel()

fileh = open("moEne.txt", 'w')
for i in range(mol.nao - norbFrozen):
  fileh.write('%.12e\n'%(mc.mo_energy[i + norbFrozen]))
fileh.close()

tools.fcidump.from_mc(mc, 'FCIDUMP.h5', nFrozen = norbFrozen)

# active space integrals for dice calculation
mo_core = mc.mo_coeff[:,:norbCore]
mo_rest = mc.mo_coeff[:,norbCore:norbCore + norbAct]
core_dm = 2 * mo_core.dot(mo_core.T)
corevhf = mc.get_veff(mol, core_dm)
energy_core = mol.energy_nuc()
energy_core += np.einsum('ij,ji', core_dm, mc.get_hcore())
energy_core += np.einsum('ij,ji', core_dm, corevhf) * .5
h1eff = mo_rest.T.dot(mc.get_hcore() + corevhf).dot(mo_rest)
eri = ao2mo.kernel(mol, mo_rest)
tools.fcidump.from_integrals('FCIDUMP', h1eff, eri, norbAct, nelecAct, energy_core, tol=1e-12)
#INFO: ******************** input file end ********************


System: ('Linux', 'compute-0-23.local', '2.6.32-504.16.2.el6.x86_64', '#1 SMP Wed Apr 22 06:48:29 UTC 2015', 'x86_64', 'x86_64')  Threads 16
Python 2.7.15 |Anaconda, Inc.| (default, May  1 2018, 23:32:55) 
[GCC 7.2.0]
numpy 1.15.1  scipy 1.1.0
Date: Wed May 20 16:46:46 2020
PySCF version 1.7.1
PySCF path  /home/nsb37/pyscf/pyscf
GIT ORIG_HEAD f9a419e89c2fa6ea63cd0445a6fc1dde4109b47b
GIT HEAD      ref: refs/heads/master
GIT master branch  97008722ba492c9d60fa46535f156620355ae933

[CONFIG] conf_file None
[INPUT] verbose = 4
[INPUT] num. atoms = 2
[INPUT] num. electrons = 14
[INPUT] charge = 0
[INPUT] spin (= nelec alpha-beta = 2S) = 0
[INPUT] symmetry 0 subgroup None
[INPUT] Mole.unit = angstrom
[INPUT]  1 N      0.000000000000   0.000000000000   0.000000000000 AA    0.000000000000   0.000000000000   0.000000000000 Bohr
[INPUT]  2 N      0.000000000000   0.000000000000   1.322940000000 AA    0.000000000000   0.000000000000   2.499994279232 Bohr

nuclear repulsion = 19.6000448509229
number of shells = 28
number of NR pGTOs = 136
number of NR cGTOs = 110
basis = cc-pvqz
ecp = {}
CPU time:         0.25


******** <class 'pyscf.scf.hf.RHF'> ********
method = RHF
initial guess = minao
damping factor = 0
level_shift factor = 0
DIIS = <class 'pyscf.scf.diis.CDIIS'>
diis_start_cycle = 1
diis_space = 8
SCF conv_tol = 1e-09
SCF conv_tol_grad = None
SCF max_cycles = 50
direct_scf = True
direct_scf_tol = 1e-13
chkfile to save SCF result = N2_HF.chk
max_memory 4000 MB (current use 60 MB)
Set gradient conv threshold to 3.16228e-05
init E= -108.375654289105
  HOMO = -0.347421384133357  LUMO = -0.0112326772656655
cycle= 1 E= -108.825341815094  delta_E= -0.45  |g|= 0.365  |ddm|=  1.1
  HOMO = -0.594129187785824  LUMO = 0.00139423894974979
cycle= 2 E= -108.854491880751  delta_E= -0.0292  |g|= 0.109  |ddm|= 0.248
  HOMO = -0.53328097123012  LUMO = 0.0589431865423674
cycle= 3 E= -108.856901919704  delta_E= -0.00241  |g|= 0.0202  |ddm|= 0.0582
  HOMO = -0.533302802273376  LUMO = 0.060303701209853
cycle= 4 E= -108.857082536486  delta_E= -0.000181  |g|= 0.00222  |ddm|= 0.0254
  HOMO = -0.533807896568205  LUMO = 0.0598713008582824
cycle= 5 E= -108.85708358915  delta_E= -1.05e-06  |g|= 0.000173  |ddm|= 0.00181
  HOMO = -0.533853894710945  LUMO = 0.0598246500593167
cycle= 6 E= -108.857083598935  delta_E= -9.79e-09  |g|= 3.4e-05  |ddm|= 0.000226
  HOMO = -0.533843346986701  LUMO = 0.0598356216341146
cycle= 7 E= -108.857083599383  delta_E= -4.47e-10  |g|= 5.18e-06  |ddm|= 5.31e-05
  HOMO = -0.533842123762931  LUMO = 0.0598366412935367
Extra cycle  E= -108.857083599395  delta_E= -1.21e-11  |g|= 1.59e-06  |ddm|= 8.37e-06
converged SCF energy = -108.857083599395

******** <class 'pyscf.mcscf.mc1step.CASSCF'> ********
CAS (5e+5e, 8o), ncore = 2, nvir = 100
max_cycle_macro = 30
max_cycle_micro = 4
conv_tol = 1e-07
conv_tol_grad = None
orbital rotation max_stepsize = 0.02
augmented hessian ah_max_cycle = 30
augmented hessian ah_conv_tol = 1e-12
augmented hessian ah_linear dependence = 1e-14
augmented hessian ah_level shift = 0
augmented hessian ah_start_tol = 2.5
augmented hessian ah_start_cycle = 3
augmented hessian ah_grad_trust_region = 3
kf_trust_region = 3
kf_interval = 4
ci_response_space = 4
ci_grad_trust_region = 3
with_dep4 0
natorb = False
canonicalization = True
sorting_mo_energy = False
ao2mo_level = 2
chkfile = N2_SHCISCF.chk
max_memory 4000 MB (current use 222 MB)
internal_rotation = False

******** SHCI flags ********
executable             = /home/nsb37/Dice_github/Dice
mpiprefix              = mpirun
scratchDirectory       = /scratch/nsb37/157466/TMPDIR/114167
integralFile           = ./FCIDUMP
configFile             = ./input.dat
outputFile             = ./output.dat
maxIter                = 6
sweep_iter             = [    0]
sweep_epsilon          = [    0]
nPTiter                = 0
Stochastic             = True
restart                = False
fullrestart            = False
num_thrds              = 1
memory                 = None

CASCI E = -108.966878755548  S^2 = 0.0000000
Set conv_tol_grad to 0.000316228
macro iter 1 (21 JK  4 micro), CASSCF E = -109.011917801664  dE = -0.045039046  S^2 = 0.0000000
               |grad[o]|=0.104  |grad[c]|= None  |ddm|=0.0468
macro iter 2 (21 JK  4 micro), CASSCF E = -109.04142356467  dE = -0.029505763  S^2 = 0.0000000
               |grad[o]|=0.0691  |grad[c]|= None  |ddm|=0.0181
macro iter 3 (21 JK  4 micro), CASSCF E = -109.061418490434  dE = -0.019994926  S^2 = 0.0000000
               |grad[o]|=0.0515  |grad[c]|= None  |ddm|=0.0148
macro iter 4 (15 JK  4 micro), CASSCF E = -109.064762798045  dE = -0.0033443076  S^2 = 0.0000000
               |grad[o]|=0.0222  |grad[c]|= None  |ddm|=0.0114
macro iter 5 (6 JK  2 micro), CASSCF E = -109.064762909843  dE = -1.1179756e-07  S^2 = 0.0000000
               |grad[o]|=0.000376  |grad[c]|= None  |ddm|=2.35e-05
macro iter 6 (1 JK  1 micro), CASSCF E = -109.064762909843  dE = 0  S^2 = 0.0000000
               |grad[o]|=1.22e-05  |grad[c]|= None  |ddm|=    0
1-step CASSCF converged in 6 macro (85 JK 19 micro) steps
CASSCF canonicalization
Density matrix diagonal elements [1.98523041 1.98733008 1.97089079 1.88905653 1.88905653 0.1184073
 0.1184073  0.04162111]
CASSCF energy = -109.064762909843
CASCI E = -109.064762909843  E(CI) = -29.6306196032142  S^2 = 0.0000000
