#INFO: **** input file is /state/partition1/nsb37/159765/prepVMC.py ****
import numpy as np
import math
from pyscf import gto, scf, ao2mo, mcscf, tools
from pyscf.shciscf import shci
import os

# make your molecule here
r = 2.5 * 0.529177
atomstring = "N 0 0 0; N 0 0 %g"%(r)
mol = gto.M(
    atom = atomstring,
    basis = 'aug-cc-pv5z',
    verbose=4,
    symmetry=0,
    spin = 0)

mf = scf.RHF(mol)
mf.chkfile = 'N2_HF.chk'
mf.kernel()

norbAct = 8
nelecAct = 10
norbFrozen = 0

mc = shci.SHCISCF(mf, norbAct, nelecAct)
mc.chkfile = 'N2_SHCISCF.chk'
mc.fcisolver.sweep_iter = [0]
mc.fcisolver.sweep_epsilon = [0]
mc.fcisolver.nPTiter = 0
mc.max_cycle_macro = 30
mc.fcisolver.nPTiter = 0  # Turns off PT calculation, i.e. no PTRDM.
mc.kernel()

fileh = open("moEne.txt", 'w')
for i in range(mol.nao - norbFrozen):
  fileh.write('%.12e\n'%(mc.mo_energy[i + norbFrozen]))
fileh.close()

tools.fcidump.from_mc(mc, 'FCIDUMP.h5', nFrozen = norbFrozen)

# active space integrals for dice calculation
mo_core = mc.mo_coeff[:,:norbCore]
mo_rest = mc.mo_coeff[:,norbCore:norbCore + norbAct]
core_dm = 2 * mo_core.dot(mo_core.T)
corevhf = mc.get_veff(mol, core_dm)
energy_core = mol.energy_nuc()
energy_core += np.einsum('ij,ji', core_dm, mc.get_hcore())
energy_core += np.einsum('ij,ji', core_dm, corevhf) * .5
h1eff = mo_rest.T.dot(mc.get_hcore() + corevhf).dot(mo_rest)
eri = ao2mo.kernel(mol, mo_rest)
tools.fcidump.from_integrals('FCIDUMP', h1eff, eri, norbAct, nelecAct, energy_core, tol=1e-12)
#INFO: ******************** input file end ********************


System: ('Linux', 'compute-0-20.local', '2.6.32-504.16.2.el6.x86_64', '#1 SMP Wed Apr 22 06:48:29 UTC 2015', 'x86_64', 'x86_64')  Threads 16
Python 2.7.15 |Anaconda, Inc.| (default, May  1 2018, 23:32:55) 
[GCC 7.2.0]
numpy 1.15.1  scipy 1.1.0
Date: Thu Jun 11 10:25:09 2020
PySCF version 1.7.1
PySCF path  /home/nsb37/pyscf/pyscf
GIT ORIG_HEAD f9a419e89c2fa6ea63cd0445a6fc1dde4109b47b
GIT HEAD      ref: refs/heads/master
GIT master branch  97008722ba492c9d60fa46535f156620355ae933

[CONFIG] conf_file None
[INPUT] verbose = 4
[INPUT] num. atoms = 2
[INPUT] num. electrons = 14
[INPUT] charge = 0
[INPUT] spin (= nelec alpha-beta = 2S) = 0
[INPUT] symmetry 0 subgroup None
[INPUT] Mole.unit = angstrom
[INPUT]  1 N      0.000000000000   0.000000000000   0.000000000000 AA    0.000000000000   0.000000000000   0.000000000000 Bohr
[INPUT]  2 N      0.000000000000   0.000000000000   1.322940000000 AA    0.000000000000   0.000000000000   2.499994279232 Bohr

nuclear repulsion = 19.6000448509229
number of shells = 52
number of NR pGTOs = 288
number of NR cGTOs = 254
basis = aug-cc-pv5z
ecp = {}
CPU time:         0.24


******** <class 'pyscf.scf.hf.RHF'> ********
method = RHF
initial guess = minao
damping factor = 0
level_shift factor = 0
DIIS = <class 'pyscf.scf.diis.CDIIS'>
diis_start_cycle = 1
diis_space = 8
SCF conv_tol = 1e-09
SCF conv_tol_grad = None
SCF max_cycles = 50
direct_scf = True
direct_scf_tol = 1e-13
chkfile to save SCF result = N2_HF.chk
max_memory 4000 MB (current use 60 MB)
Set gradient conv threshold to 3.16228e-05
init E= -108.377024660511
  HOMO = -0.347981212989558  LUMO = -0.0145241918539107
cycle= 1 E= -108.825706116158  delta_E= -0.449  |g|= 0.371  |ddm|= 0.939
  HOMO = -0.598586570668334  LUMO = -0.00633987791480254
cycle= 2 E= -108.85609318887  delta_E= -0.0304  |g|= 0.114  |ddm|= 0.197
  HOMO = -0.535675164017533  LUMO = 0.0482048850704464
cycle= 3 E= -108.858697897728  delta_E= -0.0026  |g|= 0.0207  |ddm|= 0.0607
  HOMO = -0.534581725386329  LUMO = 0.0504059365389554
cycle= 4 E= -108.858895905335  delta_E= -0.000198  |g|= 0.00233  |ddm|= 0.0224
  HOMO = -0.53500919924762  LUMO = 0.0501065390407113
cycle= 5 E= -108.858897305723  delta_E= -1.4e-06  |g|= 0.00019  |ddm|= 0.00173
  HOMO = -0.535028673494489  LUMO = 0.0500866909952767
cycle= 6 E= -108.858897324421  delta_E= -1.87e-08  |g|= 4.09e-05  |ddm|= 0.000226
  HOMO = -0.535015122420982  LUMO = 0.050097958231784
cycle= 7 E= -108.85889732527  delta_E= -8.49e-10  |g|= 6.57e-06  |ddm|= 4.64e-05
  HOMO = -0.535014807663444  LUMO = 0.0500979472892975
Extra cycle  E= -108.858897325291  delta_E= -2.09e-11  |g|= 2.03e-06  |ddm|= 8.23e-06
converged SCF energy = -108.858897325291

******** <class 'pyscf.mcscf.mc1step.CASSCF'> ********
CAS (5e+5e, 8o), ncore = 2, nvir = 244
max_cycle_macro = 30
max_cycle_micro = 4
conv_tol = 1e-07
conv_tol_grad = None
orbital rotation max_stepsize = 0.02
augmented hessian ah_max_cycle = 30
augmented hessian ah_conv_tol = 1e-12
augmented hessian ah_linear dependence = 1e-14
augmented hessian ah_level shift = 0
augmented hessian ah_start_tol = 2.5
augmented hessian ah_start_cycle = 3
augmented hessian ah_grad_trust_region = 3
kf_trust_region = 3
kf_interval = 4
ci_response_space = 4
ci_grad_trust_region = 3
with_dep4 0
natorb = False
canonicalization = True
sorting_mo_energy = False
ao2mo_level = 2
chkfile = N2_SHCISCF.chk
max_memory 4000 MB (current use 254 MB)
internal_rotation = False

******** SHCI flags ********
executable             = /home/nsb37/Dice_github/Dice
mpiprefix              = mpirun
scratchDirectory       = /scratch/nsb37/159765/TMPDIR/69502
integralFile           = ./FCIDUMP
configFile             = ./input.dat
outputFile             = ./output.dat
maxIter                = 6
sweep_iter             = [    0]
sweep_epsilon          = [    0]
nPTiter                = 0
Stochastic             = True
restart                = False
fullrestart            = False
num_thrds              = 1
memory                 = None

CASCI E = -108.932483231755  S^2 = 0.0000000
Set conv_tol_grad to 0.000316228
macro iter 1 (21 JK  4 micro), CASSCF E = -109.002823603602  dE = -0.070340372  S^2 = 0.0000000
               |grad[o]|=0.0909  |grad[c]|= None  |ddm|=0.123
macro iter 2 (21 JK  4 micro), CASSCF E = -109.021685999956  dE = -0.018862396  S^2 = 0.0000000
               |grad[o]|=0.0302  |grad[c]|= None  |ddm|=0.0165
macro iter 3 (21 JK  4 micro), CASSCF E = -109.048690425103  dE = -0.027004425  S^2 = 0.0000000
               |grad[o]|=0.0372  |grad[c]|= None  |ddm|=0.0203
macro iter 4 (21 JK  4 micro), CASSCF E = -109.065595201871  dE = -0.016904777  S^2 = 0.0000000
               |grad[o]|=0.0366  |grad[c]|= None  |ddm|=0.013
macro iter 5 (13 JK  4 micro), CASSCF E = -109.06653277106  dE = -0.00093756919  S^2 = 0.0000000
               |grad[o]|=0.0108  |grad[c]|= None  |ddm|=0.00271
macro iter 6 (3 JK  1 micro), CASSCF E = -109.066532771735  dE = -6.7510086e-10  S^2 = 0.0000000
               |grad[o]|=3.61e-05  |grad[c]|= None  |ddm|=    0
1-step CASSCF converged in 6 macro (100 JK 21 micro) steps
CASSCF canonicalization
Density matrix diagonal elements [1.98520501 1.98740208 1.97096916 1.88897879 1.88897879 0.11848234
 0.11848234 0.04150146]
CASSCF energy = -109.066532771735
CASCI E = -109.066532771735  E(CI) = -29.6323179301401  S^2 = 0.0000000
